{
  "Symbol": "Tl",
  "Atomic Number": 81,
  "Name": "Thallium",
  "Mass": "204.3",
  "Group": 13,
  "Period": 6,
  "Classification": "Post Transition Metals",
  "Location": "p-block",
  "Electron shell configuration": "",
  "Electron subshell configuration": "1s2 2s2 2p6 3s2 3p6 3d10 4s2 4p6 4d10 4f14 5s2 5p6 5d10 6s2 6p1",
  "Ionisation energy": "6.108 eV",
  "State at Room Temperature": "Solid",
  "Boiling Point": "1746 K",
  "Melting Point": "577 K",
  "Isotopes": "",
  "Discovered": "Sir William Crookes, in 1861",
  "Element Description": ""
}
