{
  "Symbol": "Nd",
  "Atomic Number": 60,
  "Name": "Neodymium",
  "Mass": "144.2",
  "Group": null,
  "Period": 6,
  "Classification": "Lanthanides",
  "Location": "f-block",
  "Electron shell configuration": "2, 8, 18, 22, 8, 2",
  "Electron subshell configuration": "1s2 2s2 2p6 3s2 3p6 3d10 4s2 4p6 4d10 4f4 5s2 5p6 6s2",
  "Ionisation energy": "5.525 eV",
  "State at Room Temperature": "Solid",
  "Boiling Point": "3074°C",
  "Melting Point": "1021°C",
  "Isotopes": "Nd-142",
  "Discovered": "1885, Carl F. Auer con Welsbach",
  "Element Description": ""
}
