{
  "Symbol": "Sr",
  "Atomic Number": 38,
  "Name": "Strontium",
  "Mass": "87.62",
  "Group": 2,
  "Period": 5,
  "Classification": "Alkali Earths Metals",
  "Location": "s-block",
  "Electron shell configuration": "2, 8, 18, 8, 2",
  "Electron subshell configuration": "1s2 2s2 2p6 3s2 3p6 3d10 4s2 4p6 5s2",
  "Ionisation energy": "45.695 eV",
  "State at Room Temperature": "Solid",
  "Boiling Point": "1382°C",
  "Melting Point": "777°C",
  "Isotopes": "Sr-86, Sr-87, Sr-88",
  "Discovered": "1790, Adair Crawford",
  "Element Description": ""
}
