{
  "Symbol": "Fr",
  "Atomic Number": 87,
  "Name": "Francium",
  "Mass": "223",
  "Group": 1,
  "Period": 7,
  "Classification": "Alkali Metals",
  "Location": "s-block",
  "Electron shell configuration": "",
  "Electron subshell configuration": "",
  "Ionisation energy": "3.9 eV",
  "State at Room Temperature": "Solid",
  "Boiling Point": "",
  "Melting Point": "300 K",
  "Isotopes": "",
  "Discovered": "Marguerite Perey, 1939",
  "Element Description": ""
}
