{
  "Symbol": "Rn",
  "Atomic Number": 86,
  "Name": "Radon",
  "Mass": "(222)",
  "Group": 18,
  "Period": 6,
  "Classification": "Noble Gas",
  "Location": "p-block",
  "Electron shell configuration": "",
  "Electron subshell configuration": "",
  "Ionisation energy": "10.745 eV",
  "State at Room Temperature": "Gas",
  "Boiling Point": "211.45 K",
  "Melting Point": "202 K",
  "Isotopes": "",
  "Discovered": "Friedrich Ernst Dorn, in 1900",
  "Element Description": ""
}
