{
  "Symbol": "Bk",
  "Atomic Number": 97,
  "Name": "Berkelium",
  "Mass": "(247)",
  "Group": null,
  "Period": 7,
  "Classification": "Actinides",
  "Location": "f-block",
  "Electron shell configuration": "",
  "Electron subshell configuration": "",
  "Ionisation energy": "",
  "State at Room Temperature": "Solid",
  "Boiling Point": "",
  "Melting Point": "1323 K",
  "Isotopes": "",
  "Discovered": "",
  "Element Description": ""
}
