{
  "Symbol": "Pd",
  "Atomic Number": 46,
  "Name": "Palladium",
  "Mass": "106.4",
  "Group": 10,
  "Period": 5,
  "Classification": "Transition Metals",
  "Location": "d-block",
  "Electron shell configuration": "2, 8, 18, 18",
  "Electron subshell configuration": "1s2 2s2 2p6 3s2 3p6 3d10 4s2 4p6 4d10",
  "Ionisation energy": "8.337 eV",
  "State at Room Temperature": "Solid",
  "Boiling Point": "2963°C",
  "Melting Point": "1554.9°C",
  "Isotopes": "Pd-106",
  "Discovered": "1803, William Hyde Wollaston",
  "Element Description": ""
}
