{
  "Symbol": "La",
  "Atomic Number": 57,
  "Name": "Lanthanum",
  "Mass": "138.9",
  "Group": null,
  "Period": 6,
  "Classification": "Lanthanides",
  "Location": "f-block",
  "Electron shell configuration": "2, 8, 18, 18, 9, 2",
  "Electron subshell configuration": "1s2 2s2 2p6 3s2 3p6 3d10 4s2 4p6 4d10 5s2 5p6 5d1 6s2",
  "Ionisation energy": "5.577 eV",
  "State at Room Temperature": "Solid",
  "Boiling Point": "3464°C",
  "Melting Point": "918°C",
  "Isotopes": "La-139",
  "Discovered": "1839, Carl Gustaf Mosander",
  "Element Description": ""
}
