{
  "Symbol": "Cu",
  "Atomic Number": 29,
  "Name": "Copper",
  "Mass": "63.55",
  "Group": 11,
  "Period": 4,
  "Classification": "Transition Metals",
  "Location": "d-block",
  "Electron shell configuration": "2, 8, 18, 1",
  "Electron subshell configuration": "1s2 2s2 2p6 3s2 3p6 3d10 4s1",
  "Ionisation energy": "7.726 eV",
  "State at Room Temperature": "Solid",
  "Boiling Point": "2562°C",
  "Melting Point": "1084.62°C",
  "Isotopes": "Cu-63",
  "Discovered": "Prehistoric",
  "Element Description": ""
}
