{
  "Symbol": "Pa",
  "Atomic Number": 91,
  "Name": "Protactinium",
  "Mass": "231.0",
  "Group": null,
  "Period": 7,
  "Classification": "Actinides",
  "Location": "f-block",
  "Electron shell configuration": "",
  "Electron subshell configuration": "",
  "Ionisation energy": "5.993 eV",
  "State at Room Temperature": "Solid",
  "Boiling Point": "",
  "Melting Point": "1845 K",
  "Isotopes": "",
  "Discovered": "1913",
  "Element Description": ""
}
