{
  "Symbol": "Lu",
  "Atomic Number": 71,
  "Name": "Lutetium",
  "Mass": "175.0",
  "Group": 3,
  "Period": 6,
  "Classification": "Lanthanides",
  "Location": "f-block",
  "Electron shell configuration": "",
  "Electron subshell configuration": "1s1 2s2 2p6 3s2 3p6 3d10 4s2 4p6 4d10 4f14 5s2 5p6 5d1 6s2",
  "Ionisation energy": "5.426 eV",
  "State at Room Temperature": "Solid",
  "Boiling Point": "3675 K",
  "Melting Point": "1936 K",
  "Isotopes": "",
  "Discovered": "Carl Gustaf Monsander, 1843",
  "Element Description": ""
}
