{
  "Symbol": "Cr",
  "Atomic Number": 24,
  "Name": "Chromium",
  "Mass": "52.00",
  "Group": 6,
  "Period": 4,
  "Classification": "Transition Metals",
  "Location": "d-block",
  "Electron shell configuration": "2, 8, 13, 1",
  "Electron subshell configuration": "1s2 2s2 2p6 3s2 3p6 3d5 4s1  ",
  "Ionisation energy": "6.767 eV",
  "State at Room Temperature": "Solid",
  "Boiling Point": "2671°C",
  "Melting Point": "1907°C",
  "Isotopes": "Cr-52",
  "Discovered": "1797, Louis-Nicholas Vanquelin",
  "Element Description": "Chromium is a silvery, lustrous metal that is hard and brittle. It is not found as a free metal in nature except for very small quantities, and a somewhat reactive metal. It is magnetic, and the 22nd most abundant element in the earth's crust. Today, it is used for strengthening steel, making stainless steel and as a dye and pigment. "
}
