{
  "Symbol": "Se",
  "Atomic Number": 34,
  "Name": "Selenium",
  "Mass": "78.97",
  "Group": 16,
  "Period": 4,
  "Classification": "Non-Metal",
  "Location": "p-block",
  "Electron shell configuration": "2, 8, 18, 6",
  "Electron subshell configuration": "1s2 2s2 2p6 3s2 3p6 3d10 4s2 4p4",
  "Ionisation energy": "9.752 eV",
  "State at Room Temperature": "Solid",
  "Boiling Point": "685°C",
  "Melting Point": "220.5°C",
  "Isotopes": "Se-80",
  "Discovered": "1817, Jons Jacob Berzelius",
  "Element Description": ""
}
