{
  "Symbol": "Ra",
  "Atomic Number": 88,
  "Name": "Radium",
  "Mass": "226",
  "Group": 2,
  "Period": 7,
  "Classification": "Alkali Earths Metals",
  "Location": "s-block",
  "Electron shell configuration": "",
  "Electron subshell configuration": "",
  "Ionisation energy": "5.17 eV",
  "State at Room Temperature": "Solid",
  "Boiling Point": "1413 K",
  "Melting Point": "973 K",
  "Isotopes": "",
  "Discovered": "Marie Curie, Pierre Curie, 1898",
  "Element Description": ""
}