{
  "Symbol": "Lr",
  "Atomic Number": 103,
  "Name": "Lawrencium",
  "Mass": "(262)",
  "Group": 3,
  "Period": 7,
  "Classification": "Actinides",
  "Location": "f-block",
  "Electron shell configuration": "",
  "Electron subshell configuration": "",
  "Ionisation energy": "",
  "State at Room Temperature": "Solid",
  "Boiling Point": "",
  "Melting Point": "1900 K (1627°C or 2961°F)",
  "Isotopes": "",
  "Discovered": "",
  "Element Description": ""
}