{
  "Symbol": "Tb",
  "Atomic Number": 65,
  "Name": "Terbium",
  "Mass": "158.9",
  "Group": null,
  "Period": 6,
  "Classification": "Lanthanides",
  "Location": "f-block",
  "Electron shell configuration": "",
  "Electron subshell configuration": "1s1 2s2 2p6 3s2 3p6 3d10 4s2 4p6 4d10 4f9 5s2 5p6  6s2",
  "Ionisation energy": "5.864 eV",
  "State at Room Temperature": "Solid",
  "Boiling Point": "3503 K",
  "Melting Point": "1629 K",
  "Isotopes": "",
  "Discovered": "Carl Gustaf Mosander, 1843",
  "Element Description": ""
}