{
  "Symbol": "Te",
  "Atomic Number": 52,
  "Name": "Tellurium",
  "Mass": "127.6",
  "Group": 16,
  "Period": 5,
  "Classification": "Metalloids",
  "Location": "p-block",
  "Electron shell configuration": "2, 8, 18, 18, 6",
  "Electron subshell configuration": "1s2 2s2 2p6 3s2 3p6 3d10 4s2 4p6 4d10 5s2 5p4",
  "Ionisation energy": "9.010 eV",
  "State at Room Temperature": "Solid",
  "Boiling Point": "988°C",
  "Melting Point": "499.51°C",
  "Isotopes": "Te-130",
  "Discovered": "1782, Franz Joseph Muller von Reichenstein",
  "Element Description": ""
}
