{
  "Symbol": "Mo",
  "Atomic Number": 42,
  "Name": "Molybdenum",
  "Mass": "95.95",
  "Group": 6,
  "Period": 5,
  "Classification": "Transition Metals",
  "Location": "d-block",
  "Electron shell configuration": "2, 8, 18, 13, 1",
  "Electron subshell configuration": "1s2 2s2 2p6 3s2 3p6 3d10 4s2 4p6 4d5 5s1",
  "Ionisation energy": "7.092 eV",
  "State at Room Temperature": "Solid",
  "Boiling Point": "4639°C",
  "Melting Point": "2623°C",
  "Isotopes": "Mo-95, Mo-96, Mo-98",
  "Discovered": "1778, Carl Welhelm Scheele",
  "Element Description": ""
}