{
  "Symbol": "Ir",
  "Atomic Number": 77,
  "Name": "Iridium",
  "Mass": "192.2",
  "Group": 9,
  "Period": 6,
  "Classification": "Transition Metals",
  "Location": "d-block",
  "Electron shell configuration": "",
  "Electron subshell configuration": "1s1 2s2 2p6 3s2 3p6 3d10 4s2 4p6 4d10 4f14 5s2 5p6 5d7 6s2",
  "Ionisation energy": "9.1 eV",
  "State at Room Temperature": "Solid",
  "Boiling Point": "4701 K",
  "Melting Point": "2719 K",
  "Isotopes": "Ir-191, Ir-193",
  "Discovered": "Smithson Tennant in 1803",
  "Element Description": ""
}