{
  "Symbol": "Re",
  "Atomic Number": 75,
  "Name": "Rhenium",
  "Mass": "186.2",
  "Group": 7,
  "Period": 6,
  "Classification": "Transition Metals",
  "Location": "d-block",
  "Electron shell configuration": "",
  "Electron subshell configuration": "1s1 2s2 2p6 3s2 3p6 3d10 4s2 4p6 4d10 4f14 5s2 5p6 5d5 6s2",
  "Ionisation energy": "7.88 eV",
  "State at Room Temperature": "Solid",
  "Boiling Point": "5869 K",
  "Melting Point": "3459 K",
  "Isotopes": "",
  "Discovered": "1925",
  "Element Description": ""
}