{
  "Symbol": "Dy",
  "Atomic Number": 66,
  "Name": "Dysprosium",
  "Mass": "162.5",
  "Group": null,
  "Period": 6,
  "Classification": "Lanthanides",
  "Location": "f-block",
  "Electron shell configuration": "",
  "Electron subshell configuration": "1s1 2s2 2p6 3s2 3p6 3d10 4s2 4p6 4d10 4f10 5s2 5p6  6s2",
  "Ionisation energy": "5.939 eV",
  "State at Room Temperature": "Solid",
  "Boiling Point": "2840 K",
  "Melting Point": "1685 K",
  "Isotopes": "",
  "Discovered": "Paul-Emile Lecoq de Boisbaudran, 1886",
  "Element Description": ""
}