{
  "Symbol": "U",
  "Atomic Number": 92,
  "Name": "Uranium",
  "Mass": "238.0",
  "Group": null,
  "Period": 7,
  "Classification": "Actinides",
  "Location": "f-block",
  "Electron shell configuration": "",
  "Electron subshell configuration": "",
  "Ionisation energy": "6.194 eV",
  "State at Room Temperature": "Solid",
  "Boiling Point": "4404 K",
  "Melting Point": "1408 K",
  "Isotopes": "U-235, U-238",
  "Discovered": "Martin Heinrich Klaproth, 1989",
  "Element Description": "The element that is used in fission power plants and nuclear bombs, Uranium is highly radioactive. "
}
