{
  "Symbol": "Nb",
  "Atomic Number": 41,
  "Name": "Niobium",
  "Mass": "92.91",
  "Group": 5,
  "Period": 5,
  "Classification": "Transition Metals",
  "Location": "d-block",
  "Electron shell configuration": "2, 8, 18, 12, 1",
  "Electron subshell configuration": "1s2 2s2 2p6 3s2 3p6 3d10 4s2 4p6 4d4 5s1",
  "Ionisation energy": "6.759 eV",
  "State at Room Temperature": "Solid",
  "Boiling Point": "4744°C",
  "Melting Point": "2477°C",
  "Isotopes": "Nb-93",
  "Discovered": "1801, Charles Hatchett",
  "Element Description": ""
}