{
  "Symbol": "Pu",
  "Atomic Number": 94,
  "Name": "Plutonium",
  "Mass": "(244)",
  "Group": null,
  "Period": 7,
  "Classification": "Actinides",
  "Location": "f-block",
  "Electron shell configuration": "",
  "Electron subshell configuration": "",
  "Ionisation energy": "6.06 eV",
  "State at Room Temperature": "Solid",
  "Boiling Point": "3501 K",
  "Melting Point": "913 K",
  "Isotopes": "",
  "Discovered": "",
  "Element Description": ""
}