{
  "Symbol": "Co",
  "Atomic Number": 27,
  "Name": "Cobalt",
  "Mass": "58.93",
  "Group": 9,
  "Period": 4,
  "Classification": "Transition Metals",
  "Location": "d-block",
  "Electron shell configuration": "2, 8, 15, 2",
  "Electron subshell configuration": "1s2 2s2 2p6 3s2 3p6 3d7 4s2  ",
  "Ionisation energy": "7.881 eV",
  "State at Room Temperature": "Solid",
  "Boiling Point": "2927°C",
  "Melting Point": "1495°C",
  "Isotopes": "Fe-59",
  "Discovered": "1739, Georg Brandt",
  "Element Description": ""
}