{
  "Symbol": "Tc",
  "Atomic Number": 43,
  "Name": "Technetium",
  "Mass": "(98)",
  "Group": 7,
  "Period": 5,
  "Classification": "Transition Metals",
  "Location": "d-block",
  "Electron shell configuration": "2, 8, 18, 13, 2",
  "Electron subshell configuration": "1s2 2s2 2p6 3s2 3p6 3d10 4s2 4p6 4d5 5s2",
  "Ionisation energy": "7.28 eV",
  "State at Room Temperature": "Solid",
  "Boiling Point": "4265°C",
  "Melting Point": "2157°C",
  "Isotopes": "Unknown",
  "Discovered": "1937, Carlo Perrier, Emilio Segre",
  "Element Description": ""
}