{
  "Symbol": "Am",
  "Atomic Number": 95,
  "Name": "Americium",
  "Mass": "(243)",
  "Group": null,
  "Period": 7,
  "Classification": "Actinides",
  "Location": "f-block",
  "Electron shell configuration": "",
  "Electron subshell configuration": "",
  "Ionisation energy": "5.993 eV",
  "State at Room Temperature": "Solid",
  "Boiling Point": "2284 K",
  "Melting Point": "1449 K",
  "Isotopes": "",
  "Discovered": "",
  "Element Description": ""
}
