{
  "Symbol": "Cd",
  "Atomic Number": 48,
  "Name": "Cadmium",
  "Mass": "112.4",
  "Group": 12,
  "Period": 5,
  "Classification": "Transition Metals",
  "Location": "d-block",
  "Electron shell configuration": "2, 8, 18, 18, 2",
  "Electron subshell configuration": "1s2 2s2 2p6 3s2 3p6 3d10 4s2 4p6 4d10 5s2",
  "Ionisation energy": "8.994 eV",
  "State at Room Temperature": "Solid",
  "Boiling Point": "767°C",
  "Melting Point": "321.07°C",
  "Isotopes": "Cd-114",
  "Discovered": "1817, Friedrich Strohmeyer",
  "Element Description": ""
}