{
  "Symbol": "Hf",
  "Atomic Number": 72,
  "Name": "Hafnium",
  "Mass": "178.5",
  "Group": 4,
  "Period": 6,
  "Classification": "Transition Metals",
  "Location": "d-block",
  "Electron shell configuration": "",
  "Electron subshell configuration": "1s1 2s2 2p6 3s2 3p6 3d10 4s2 4p6 4d10 4f14 5s2 5p6 5d2 6s2",
  "Ionisation energy": "6.825 eV",
  "State at Room Temperature": "Solid",
  "Boiling Point": "4876 K",
  "Melting Point": "2506 K",
  "Isotopes": "",
  "Discovered": "Dirk Coster, Charles de Hevesy, 1923",
  "Element Description": ""
}