{
  "Symbol": "Ta",
  "Atomic Number": 73,
  "Name": "Tantalum",
  "Mass": "180.9",
  "Group": 5,
  "Period": 6,
  "Classification": "Transition Metals",
  "Location": "d-block",
  "Electron shell configuration": "",
  "Electron subshell configuration": "1s1 2s2 2p6 3s2 3p6 3d10 4s2 4p6 4d10 4f14 5s2 5p6 5d3 6s2",
  "Ionisation energy": "7.89 eV",
  "State at Room Temperature": "Solid",
  "Boiling Point": "5731 K",
  "Melting Point": "3290 K",
  "Isotopes": "",
  "Discovered": "Anders Gustaf Ekenberg, in 1802",
  "Element Description": ""
}