{
  "Symbol": "Es",
  "Atomic Number": 99,
  "Name": "Einsteinium",
  "Mass": "(252)",
  "Group": null,
  "Period": 7,
  "Classification": "Actinides",
  "Location": "f-block",
  "Electron shell configuration": "",
  "Electron subshell configuration": "",
  "Ionisation energy": "",
  "State at Room Temperature": "Solid",
  "Boiling Point": "",
  "Melting Point": "1133 K",
  "Isotopes": "",
  "Discovered": "",
  "Element Description": ""
}