{
  "Symbol": "Ce",
  "Atomic Number": 58,
  "Name": "Cerium",
  "Mass": "140.1",
  "Group": null,
  "Period": 6,
  "Classification": "Lanthanides",
  "Location": "f-block",
  "Electron shell configuration": "2, 8, 18, 19, 9, 2",
  "Electron subshell configuration": "1s2 2s2 2p6 3s2 3p6 3d10 4s2 4p6 4d10 4f1 5s2 5p6 5d1 6s2",
  "Ionisation energy": "5.539 eV",
  "State at Room Temperature": "Solid",
  "Boiling Point": "3424°C",
  "Melting Point": "798°C",
  "Isotopes": "Ce-140",
  "Discovered": "1803, Jons Jacob Berzelius, Wilhelm con Hisinger",
  "Element Description": ""
}