{
  "Symbol": "Sb",
  "Atomic Number": 51,
  "Name": "Antimony",
  "Mass": "121.8",
  "Group": 15,
  "Period": 5,
  "Classification": "Metalloids",
  "Location": "p-block",
  "Electron shell configuration": "2, 8, 18, 18, 5",
  "Electron subshell configuration": "1s2 2s2 2p6 3s2 3p6 3d10 4s2 4p6 4d10 5s2 5p3",
  "Ionisation energy": "8.64 eV",
  "State at Room Temperature": "Solid",
  "Boiling Point": "1587°C",
  "Melting Point": "630.63°C",
  "Isotopes": "Sb-121",
  "Discovered": "Prehistoric",
  "Element Description": ""
}