{
  "Symbol": "In",
  "Atomic Number": 49,
  "Name": "Indium",
  "Mass": "114.8",
  "Group": 13,
  "Period": 5,
  "Classification": "Post Transition Metals",
  "Location": "d-block",
  "Electron shell configuration": "2, 8, 18, 18, 3",
  "Electron subshell configuration": "1s2 2s2 2p6 3s2 3p6 3d10 4s2 4p6 4d10 5s2 5p1",
  "Ionisation energy": "5.786 eV",
  "State at Room Temperature": "Solid",
  "Boiling Point": "2072°C",
  "Melting Point": "156.60°C",
  "Isotopes": "In-115",
  "Discovered": "1863, Ferdinand Reich, Hieronimus Theodor Richter",
  "Element Description": ""
}
