{
  "Symbol": "Ru",
  "Atomic Number": 44,
  "Name": "Ruthenium",
  "Mass": "101.1",
  "Group": 8,
  "Period": 5,
  "Classification": "Transition Metals",
  "Location": "d-block",
  "Electron shell configuration": "2, 8, 18, 15, 1",
  "Electron subshell configuration": "1s2 2s2 2p6 3s2 3p6 3d10 4s2 4p6 4d7 5s1",
  "Ionisation energy": "7.361 eV",
  "State at Room Temperature": "Solid",
  "Boiling Point": "4150°C",
  "Melting Point": "2334°C",
  "Isotopes": "Ru-101, Ru-102, Ru-104",
  "Discovered": "1844, Karl Karlovich Klaus",
  "Element Description": ""
}
