{
  "Symbol": "Sm",
  "Atomic Number": 62,
  "Name": "Samarium",
  "Mass": "150.4",
  "Group": null,
  "Period": 6,
  "Classification": "Lanthanides",
  "Location": "f-block",
  "Electron shell configuration": "",
  "Electron subshell configuration": "1s1 2s2 2p6 3s2 3p6 3d10 4s2 4p6 4d10 4f6 5s2 5p6  6s2",
  "Ionisation energy": "5.664 eV",
  "State at Room Temperature": "Solid",
  "Boiling Point": "2067 K",
  "Melting Point": "1347 K",
  "Isotopes": "",
  "Discovered": "Jean Charles Galissard de Marignac, 1853",
  "Element Description": ""
}
