{
  "Symbol": "Pm",
  "Atomic Number": 61,
  "Name": "Promethium",
  "Mass": "(145)",
  "Group": null,
  "Period": 6,
  "Classification": "Lanthanides",
  "Location": "f-block",
  "Electron shell configuration": "",
  "Electron subshell configuration": "1s1 2s2 2p6 3s2 3p6 3d10 4s2 4p6 4d10 4f5 5s2 5p6  6s2",
  "Ionisation energy": "5.55 eV",
  "State at Room Temperature": "Solid",
  "Boiling Point": "3273 K",
  "Melting Point": "1315 K",
  "Isotopes": "",
  "Discovered": "Bohuslav Brauner, 1902",
  "Element Description": ""
}