{
  "Symbol": "Fm",
  "Atomic Number": 100,
  "Name": "Fermium",
  "Mass": "(257)",
  "Group": null,
  "Period": 7,
  "Classification": "Actinides",
  "Location": "f-block",
  "Electron shell configuration": "",
  "Electron subshell configuration": "",
  "Ionisation energy": "",
  "State at Room Temperature": "Solid",
  "Boiling Point": "",
  "Melting Point": "1800 K",
  "Isotopes": "",
  "Discovered": "",
  "Element Description": ""
}