{
  "Symbol": "Th",
  "Atomic Number": 90,
  "Name": "Thorium",
  "Mass": "232.0",
  "Group": null,
  "Period": 7,
  "Classification": "Actinides",
  "Location": "f-block",
  "Electron shell configuration": "",
  "Electron subshell configuration": "",
  "Ionisation energy": "6.08 eV",
  "State at Room Temperature": "Solid",
  "Boiling Point": "",
  "Melting Point": "1845 K",
  "Isotopes": "",
  "Discovered": "Jons Jacob Berzelius, 1828",
  "Element Description": ""
}
