{
  "Symbol": "Ac",
  "Atomic Number": 89,
  "Name": "Actinium",
  "Mass": "(227)",
  "Group": null,
  "Period": 7,
  "Classification": "Actinides",
  "Location": "f-block",
  "Electron shell configuration": "",
  "Electron subshell configuration": "",
  "Ionisation energy": "5.17 eV",
  "State at Room Temperature": "Solid",
  "Boiling Point": "3471 K",
  "Melting Point": "1324 K",
  "Isotopes": "",
  "Discovered": "Andrew-Louis Debierne in 1899",
  "Element Description": ""
}