{
  "Symbol": "Np",
  "Atomic Number": 93,
  "Name": "Neptunium",
  "Mass": "(237)",
  "Group": null,
  "Period": 7,
  "Classification": "Actinides",
  "Location": "f-block",
  "Electron shell configuration": "",
  "Electron subshell configuration": "",
  "Ionisation energy": "6.266 eV",
  "State at Room Temperature": "Solid",
  "Boiling Point": "4175 K",
  "Melting Point": "917 K",
  "Isotopes": "Np-237",
  "Discovered": "Edwin M. McMillian and Philip H. Abelson, 1940",
  "Element Description": ""
}