{
  "Symbol": "Gd",
  "Atomic Number": 64,
  "Name": "Gadolinium",
  "Mass": "157.3",
  "Group": null,
  "Period": 6,
  "Classification": "Lanthanides",
  "Location": "f-block",
  "Electron shell configuration": "",
  "Electron subshell configuration": "1s1 2s2 2p6 3s2 3p6 3d10 4s2 4p6 4d10 4f8 5s2 5p6  6s2",
  "Ionisation energy": "6.150 eV",
  "State at Room Temperature": "Solid",
  "Boiling Point": "3546 K",
  "Melting Point": "1586 K",
  "Isotopes": "",
  "Discovered": "Jeans Charles Galissard de Marignac, 1880",
  "Element Description": ""
}