{
  "Symbol": "Pb",
  "Atomic Number": 82,
  "Name": "Lead",
  "Mass": "207.2",
  "Group": 14,
  "Period": 6,
  "Classification": "Post Transition Metals",
  "Location": "p-block",
  "Electron shell configuration": "",
  "Electron subshell configuration": "1s2 2s2 2p6 3s2 3p6 3d10 4s2 4p6 4d10 4f14 5s2 5p6 5d10 6s2 6p2",
  "Ionisation energy": "7.417 eV",
  "State at Room Temperature": "Solid",
  "Boiling Point": "2022 K",
  "Melting Point": "600.61 K",
  "Isotopes": "",
  "Discovered": "Ancient",
  "Element Description": ""
}