{
  "Symbol": "Sn",
  "Atomic Number": 50,
  "Name": "Tin",
  "Mass": "118.7",
  "Group": 14,
  "Period": 5,
  "Classification": "Post Transition Metals",
  "Location": "d-block",
  "Electron shell configuration": "2, 8, 18, 18, 4",
  "Electron subshell configuration": "1s2 2s2 2p6 3s2 3p6 3d10 4s2 4p6 4d10 5s2 5p2",
  "Ionisation energy": "7.344 eV",
  "State at Room Temperature": "Solid",
  "Boiling Point": "2602°C",
  "Melting Point": "231.93°C",
  "Isotopes": "Sn-120",
  "Discovered": "Prehistoric",
  "Element Description": ""
}