{
  "Symbol": "Os",
  "Atomic Number": 76,
  "Name": "Osmium",
  "Mass": "190.2",
  "Group": 8,
  "Period": 6,
  "Classification": "Transition Metals",
  "Location": "d-block",
  "Electron shell configuration": "",
  "Electron subshell configuration": "1s1 2s2 2p6 3s2 3p6 3d10 4s2 4p6 4d10 4f14 5s2 5p6 5d6 6s2",
  "Ionisation energy": "8.7 eV",
  "State at Room Temperature": "Solid",
  "Boiling Point": "5285 K",
  "Melting Point": "3306 K",
  "Isotopes": "",
  "Discovered": "Smithson Tennant in 1803",
  "Element Description": ""
}