{
  "Symbol": "Cf",
  "Atomic Number": 98,
  "Name": "Californium",
  "Mass": "(251)",
  "Group": null,
  "Period": 7,
  "Classification": "Actinides",
  "Location": "f-block",
  "Electron shell configuration": "",
  "Electron subshell configuration": "",
  "Ionisation energy": "",
  "State at Room Temperature": "Solid",
  "Boiling Point": "",
  "Melting Point": "1173 K",
  "Isotopes": "",
  "Discovered": "",
  "Element Description": ""
}