{
  "Symbol": "Y",
  "Atomic Number": 39,
  "Name": "Yttrium",
  "Mass": "88.91",
  "Group": 3,
  "Period": 5,
  "Classification": "Transition Metals",
  "Location": "d-block",
  "Electron shell configuration": "2, 8, 18, 9, 2",
  "Electron subshell configuration": "1s2 2s2 2p6 3s2 3p6 3d10 4s2 4p6 4d1 5s2",
  "Ionisation energy": "6.217 eV",
  "State at Room Temperature": "Solid",
  "Boiling Point": "3345°C",
  "Melting Point": "1522°C",
  "Isotopes": "Y-89",
  "Discovered": "1789, Johan Gadolin",
  "Element Description": ""
}
