{
  "Symbol": "Ba",
  "Atomic Number": 56,
  "Name": "Barium",
  "Mass": "137.3",
  "Group": 2,
  "Period": 6,
  "Classification": "Alkali Earths Metals",
  "Location": "s-block",
  "Electron shell configuration": "2, 8, 18, 18, 8, 2",
  "Electron subshell configuration": "1s2 2s2 2p6 3s2 3p6 3d10 4s2 4p6 4d10 5s2 5p6, 6s2",
  "Ionisation energy": "5.212 eV",
  "State at Room Temperature": "Solid",
  "Boiling Point": "1897°C",
  "Melting Point": "727°C",
  "Isotopes": "Ba-138",
  "Discovered": "Sir Huphry Davy",
  "Element Description": ""
}