{
  "Symbol": "Po",
  "Atomic Number": 84,
  "Name": "Polonium",
  "Mass": "(209)",
  "Group": 16,
  "Period": 6,
  "Classification": "Metalloids",
  "Location": "p-block",
  "Electron shell configuration": "",
  "Electron subshell configuration": "",
  "Ionisation energy": "8.417 eV",
  "State at Room Temperature": "Solid",
  "Boiling Point": "1235 K",
  "Melting Point": "527 K",
  "Isotopes": "Po-209",
  "Discovered": "Marie Curie, 1898",
  "Element Description": ""
}