{
  "Symbol": "Pr",
  "Atomic Number": 59,
  "Name": "Praseodymium",
  "Mass": "140.9",
  "Group": null,
  "Period": 6,
  "Classification": "Lanthanides",
  "Location": "f-block",
  "Electron shell configuration": "2, 8, 18, 21, 8, 2",
  "Electron subshell configuration": "1s2 2s2 2p6 3s2 3p6 3d10 4s2 4p6 4d10 4f3 5s2 5p6  6s2",
  "Ionisation energy": "5.464 eV",
  "State at Room Temperature": "Solid",
  "Boiling Point": "3793 K",
  "Melting Point": "1204 K",
  "Isotopes": "Pr-141",
  "Discovered": "Carl F. Auer von Welsbach, 1885",
  "Element Description": ""
}