{
  "Symbol": "Bi",
  "Atomic Number": 83,
  "Name": "Bismuth",
  "Mass": "209.0",
  "Group": 15,
  "Period": 6,
  "Classification": "Post Transition Metals",
  "Location": "p-block",
  "Electron shell configuration": "",
  "Electron subshell configuration": "1s2 2s2 2p6 3s2 3p6 3d10 4s2 4p6 4d10 4f14 5s2 5p6 5d10 6s2 6p3",
  "Ionisation energy": "7.289 eV",
  "State at Room Temperature": "Solid",
  "Boiling Point": "1837 K",
  "Melting Point": "544.55 K",
  "Isotopes": "",
  "Discovered": "Claude Geoffroy, 1753",
  "Element Description": ""
}