{
  "Symbol": "Ga",
  "Atomic Number": 31,
  "Name": "Gallium",
  "Mass": "69.72",
  "Group": 13,
  "Period": 4,
  "Classification": "Post Transition Metals",
  "Location": "p-block",
  "Electron shell configuration": "2, 8, 18, 3",
  "Electron subshell configuration": "1s2 2s2 2p6 3s2 3p6 3d10 4s2 4p1",
  "Ionisation energy": "5.999 eV",
  "State at Room Temperature": "Solid",
  "Boiling Point": "2204°C",
  "Melting Point": "29.76°C",
  "Isotopes": "Ga-69",
  "Discovered": "1875, Paul-Emile Lecoq de Boisbaudran",
  "Element Description": ""
}