{
  "Symbol": "At",
  "Atomic Number": 85,
  "Name": "Astatine",
  "Mass": "(210)",
  "Group": 17,
  "Period": 6,
  "Classification": "Halogens",
  "Location": "p-block",
  "Electron shell configuration": "",
  "Electron subshell configuration": "",
  "Ionisation energy": "9.5 eV",
  "State at Room Temperature": "Gas",
  "Boiling Point": "",
  "Melting Point": "575 K",
  "Isotopes": "",
  "Discovered": "1940",
  "Element Description": ""
}