{
  "Symbol": "W",
  "Atomic Number": 74,
  "Name": "Tungsten",
  "Mass": "183.8",
  "Group": 6,
  "Period": 6,
  "Classification": "Transition Metals",
  "Location": "d-block",
  "Electron shell configuration": "",
  "Electron subshell configuration": "1s1 2s2 2p6 3s2 3p6 3d10 4s2 4p6 4d10 4f14 5s2 5p6 5d4 6s2",
  "Ionisation energy": "7.98 eV",
  "State at Room Temperature": "Solid",
  "Boiling Point": "5828 K",
  "Melting Point": "3695 K",
  "Isotopes": "",
  "Discovered": "Juan Jose, Fausto Elhuyah, 1783",
  "Element Description": ""
}