{
  "Symbol": "Ni",
  "Atomic Number": 28,
  "Name": "Nickel",
  "Mass": "58.69",
  "Group": 10,
  "Period": 4,
  "Classification": "Transition Metals",
  "Location": "d-block",
  "Electron shell configuration": "2, 8, 16, 2",
  "Electron subshell configuration": "1s2 2s2 2p6 3s2 3p6 3d8 4s2",
  "Ionisation energy": "7.640 eV",
  "State at Room Temperature": "Solid",
  "Boiling Point": "2931°C",
  "Melting Point": "1455°C",
  "Isotopes": "Ni-58",
  "Discovered": "1751, Axel Fredrik Cronstedt",
  "Element Description": ""
}