{
  "Symbol": "No",
  "Atomic Number": 102,
  "Name": "Nobelium",
  "Mass": "(259)",
  "Group": null,
  "Period": 7,
  "Classification": "Actinides",
  "Location": "f-block",
  "Electron shell configuration": "",
  "Electron subshell configuration": "",
  "Ionisation energy": "",
  "State at Room Temperature": "Solid",
  "Boiling Point": "",
  "Melting Point": "1100 K",
  "Isotopes": "",
  "Discovered": "",
  "Element Description": ""
}