{
  "Symbol": "Zn",
  "Atomic Number": 30,
  "Name": "Zinc",
  "Mass": "65.38",
  "Group": 12,
  "Period": 4,
  "Classification": "Transition Metals",
  "Location": "d-block",
  "Electron shell configuration": "2, 8, 18, 12",
  "Electron subshell configuration": "1s2 2s2 2p6 3s2 3p6 3d10 4s2",
  "Ionisation energy": "9.394 eV",
  "State at Room Temperature": "Solid",
  "Boiling Point": "907°C",
  "Melting Point": "419.53°C",
  "Isotopes": "Zn-64",
  "Discovered": "Before 1000 BC, Indian metallurgists",
  "Element Description": ""
}