{
  "Symbol": "Zr",
  "Atomic Number": 40,
  "Name": "Zirconium",
  "Mass": "91.22",
  "Group": 4,
  "Period": 5,
  "Classification": "Transition Metals",
  "Location": "d-block",
  "Electron shell configuration": "2, 8, 18, 10, 2",
  "Electron subshell configuration": "1s2 2s2 2p6 3s2 3p6 3d10 4s2 4p6 4d2 5s2",
  "Ionisation energy": "6.634 eV",
  "State at Room Temperature": "Solid",
  "Boiling Point": "4409°C",
  "Melting Point": "1855°C",
  "Isotopes": "Zr-90, Zr-92, Zr-94",
  "Discovered": "1789, Martin Heinrich Klaproth",
  "Element Description": ""
}