{
  "Symbol": "Pt",
  "Atomic Number": 78,
  "Name": "Platinum",
  "Mass": "195.1",
  "Group": 10,
  "Period": 6,
  "Classification": "Transition Metals",
  "Location": "d-block",
  "Electron shell configuration": "",
  "Electron subshell configuration": "1s1 2s2 2p6 3s2 3p6 3d10 4s2 4p6 4d10 4f14 5s2 5p6 5d9 6s1",
  "Ionisation energy": "9 eV",
  "State at Room Temperature": "Solid",
  "Boiling Point": "4098 K",
  "Melting Point": "2041.55 K",
  "Isotopes": "",
  "Discovered": "Ancient",
  "Element Description": ""
}